ITEM: TIMESTEP
0
ITEM: NUMBER OF ATOMS
96
ITEM: BOX BOUNDS xy xz yz pp pp pp
-2.8479999999999999e+00 5.6959999999999997e+00 -2.8479999999999999e+00
0.0000000000000000e+00 4.9328810000000001e+00 0.0000000000000000e+00
0.0000000000000000e+00 2.8052000000000000e+01 0.0000000000000000e+00
ITEM: ATOMS id type xu yu zu vx vy vz
57 3 1.424 0.822111 1.31026 0 0 -0
55 3 1.424 2.46641 3.36492 -0 -0 0
25 2 -7.54952e-15 1.64426 2.33759 0 0 0
9 1 1.424 0.822156 4.67527 0 -0 0
73 3 -1.44329e-15 1.6443 5.98563 -0 -0 0
17 1 0 1.64428 9.35061 -0 0 0
65 3 1.424 0.822147 8.04027 0 0 0
41 2 1.424 0.822096 11.6883 -0 0 -0
81 3 2.10942e-15 1.64424 12.7156 -0 -0 0
95 3 1.424 2.46639 10.661 -0 0 -0
8 1 1.424 2.46638 14.0259 0 0 -0
58 3 1.424 0.822109 15.3362 0 0 -0
56 3 1.424 2.46641 17.3909 0 0 0
26 2 -3.44169e-15 1.64426 16.3636 0 -0 0
10 1 1.424 0.822152 18.7012 0 -0 -0
74 3 0 1.64429 20.0116 0 0 -0
34 2 1.424 2.46644 21.0389 -0 0 -0
18 1 0 1.64428 23.3766 0 0 -0
66 3 1.424 0.822143 22.0662 0 -0 -0
42 2 1.424 0.822094 25.7142 -0 -0 -0
82 3 0 1.64424 26.7416 -0 0 0
96 3 1.424 2.46639 24.6869 -0 0 0
7 1 1.424 2.46638 -9.47363e-05 -0 0 -0
27 2 -1.424 4.1107 2.33759 0 -0 0
59 3 0 3.28855 1.31026 0 -0 0
53 3 2.848 -3.19698e-05 3.36492 0 0 0
11 1 -4.44089e-16 3.28859 4.67528 0 0 -0
75 3 -1.424 4.11074 5.98563 -0 0 -0
37 2 -1.424 2.46644 7.01295 0 -0 -0
35 2 -3.9968e-15 4.93288 7.01295 -0 -0 -0
19 1 -1.424 4.11071 9.35062 0 -0 0
67 3 -1.77636e-15 3.28859 8.04027 0 -0 0
43 2 -4.44089e-15 3.28853 11.6883 -0 0 0
83 3 -1.424 4.11068 12.7156 -0 -0 -0
93 3 -8.88178e-16 4.93283 10.661 -0 -0 0
6 1 2.848 -7.24601e-05 14.0259 -0 -0 -0
28 2 -1.424 4.1107 16.3636 0 -0 -0
60 3 1.77636e-15 3.28855 15.3362 0 0 -0
54 3 2.848 -3.35896e-05 17.3909 0 0 0
12 1 6.66134e-16 3.28858 18.7012 0 0 -0
76 3 -1.424 4.11073 20.0116 0 0 0
36 2 2.848 -5.61832e-06 21.0389 -0 0 -0
20 1 -1.424 4.1107 23.3766 -0 -0 0
68 3 -1.33227e-15 3.28858 22.0662 -0 -0 -0
44 2 7.32747e-15 3.28853 25.7142 0 -0 0
84 3 -1.424 4.11068 26.7416 -0 -0 0
94 3 4.44089e-16 4.93283 24.6869 0 0 0
5 1 2.848 -7.25876e-05 -9.27646e-05 0 -0 -0
51 3 4.272 2.46641 3.36492 -0 -0 0
61 3 4.272 0.822111 1.31026 0 -0 -0
29 2 2.848 1.64426 2.33759 -0 -0 0
13 1 4.272 0.822156 4.67527 -0 -0 -0
77 3 2.848 1.6443 5.98563 0 0 0
21 1 2.848 1.64428 9.35061 0 -0 -0
69 3 4.272 0.822147 8.04027 -0 0 -0
45 2 4.272 0.822096 11.6883 -0 0 -0
85 3 2.848 1.64424 12.7156 0 0 0
91 3 -1.424 2.46639 10.661 0 -0 0
4 1 -1.424 2.46638 14.0259 0 -0 -0
52 3 4.272 2.46641 17.3909 -0 0 -0
62 3 4.272 0.822109 15.3362 -0 -0 -0
30 2 2.848 1.64426 16.3636 0 -0 -0
14 1 4.272 0.822152 18.7012 0 0 -0
78 3 2.848 1.64429 20.0116 -0 0 0
38 2 4.272 2.46644 21.0389 -0 0 -0
22 1 2.848 1.64428 23.3766 0 0 -0
70 3 4.272 0.822143 22.0662 0 0 -0
46 2 4.272 0.822094 25.7142 -0 0 0
86 3 2.848 1.64424 26.7416 -0 -0 -0
92 3 -1.424 2.46639 24.6869 0 -0 -0
3 1 -1.424 2.46638 -9.47363e-05 0 -0 0
31 2 1.424 4.1107 2.33759 0 0 -0
63 3 2.848 3.28855 1.31026 0 0 -0
49 3 2.66454e-15 -3.19734e-05 3.36492 -0 0 -0
15 1 2.848 3.28859 4.67528 0 0 0
79 3 1.424 4.11074 5.98563 -0 0 -0
33 2 1.424 2.46644 7.01295 -0 -0 -0
39 2 2.66454e-15 -1.17656e-06 7.01295 -0 0 -0
23 1 1.424 4.11071 9.35062 -0 -0 -0
71 3 2.848 3.28859 8.04027 0 -0 0
47 2 2.848 3.28853 11.6883 0 0 0
87 3 1.424 4.11068 12.7156 -0 -0 0
89 3 0 -5.23587e-05 10.661 0 -0 -0
2 1 4.44089e-16 -7.24342e-05 14.0259 0 0 0
32 2 1.424 4.1107 16.3636 0 0 0
64 3 2.848 3.28855 15.3362 -0 0 -0
50 3 3.9968e-15 -3.35902e-05 17.3909 -0 -0 -0
16 1 2.848 3.28858 18.7012 -0 0 -0
80 3 1.424 4.11073 20.0116 0 0 0
40 2 -1.24345e-14 -5.62129e-06 21.0389 0 -0 0
24 1 1.424 4.1107 23.3766 -0 0 -0
72 3 2.848 3.28858 22.0662 0 -0 0
48 2 2.848 3.28853 25.7142 0 -0 0
88 3 1.424 4.11068 26.7416 0 -0 -0
90 3 -2.66454e-15 -5.39881e-05 24.6869 -0 -0 0
1 1 0 -7.25613e-05 -9.27661e-05 0 -0 -0
ITEM: TIMESTEP
500
ITEM: NUMBER OF ATOMS
96
ITEM: BOX BOUNDS xy xz yz pp pp pp
-2.8479999999999999e+00 5.6959999999999997e+00 -2.8479999999999999e+00
0.0000000000000000e+00 4.9328810000000001e+00 0.0000000000000000e+00
0.0000000000000000e+00 2.8052000000000000e+01 0.0000000000000000e+00
ITEM: ATOMS id type xu yu zu vx vy vz
57 3 1.424 0.82213 1.31026 -2.79791e-06 5.93803e-05 -0.000389948
55 3 1.424 2.46642 3.36491 -7.32001e-06 9.42512e-05 0.00062091
25 2 -9.91093e-15 1.64427 2.33758 3.382e-13 0.000281014 0.000591656
9 1 1.424 0.822037 4.67525 -1.60183e-05 0.000625622 -0.000496829
73 3 1.15593e-14 1.64418 5.98559 -2.7471e-12 -8.17104e-05 0.00150311
17 1 -1.93594e-15 1.64424 9.35058 -9.86421e-13 0.00100089 0.00121753
65 3 1.424 0.822038 8.04025 8.08085e-06 -2.18625e-05 0.000472382
41 2 1.424 0.822182 11.6883 -3.01531e-06 0.000328228 0.00122532
81 3 1.84427e-14 1.64433 12.7156 8.28073e-13 0.000301853 0.00170966
95 3 1.424 2.46647 10.6609 -7.74071e-06 0.000403642 0.00163862
8 1 1.424 2.4665 14.0259 5.29486e-07 -0.000183097 0.000558334
58 3 1.424 0.822132 15.3363 1.32384e-06 0.000125515 -0.00119998
56 3 1.424 2.46642 17.3909 -1.1028e-06 0.000152341 -0.000516986
26 2 1.01825e-14 1.64428 16.3636 -1.12409e-12 0.000337754 -0.000219913
10 1 1.424 0.82204 18.7013 1.89486e-06 0.000767628 -0.00192597
74 3 1.58053e-14 1.64419 20.0116 1.06457e-12 -1.4522e-05 -0.00135796
34 2 1.424 2.46634 21.0389 9.30891e-08 -0.000227431 -0.00195494
18 1 1.45146e-15 1.64424 23.3766 -1.73482e-12 0.00108477 -0.000603947
66 3 1.424 0.822043 22.0662 2.09103e-07 2.34065e-05 -0.00245521
42 2 1.424 0.822183 25.7143 1.96088e-08 0.000390545 -0.000765335
82 3 -1.69916e-15 1.64433 26.7416 -1.40055e-13 0.00035564 -0.000329176
96 3 1.424 2.46648 24.6869 -1.51924e-06 0.000461122 -0.00063652
7 1 1.424 2.4665 -7.35228e-05 5.02807e-07 -0.000173756 0.000175388
27 2 -1.424 4.11072 2.33758 4.61401e-06 -0.000227673 0.000598805
59 3 -5.63212e-15 3.28858 1.31026 8.09598e-14 -0.000109447 -1.1837e-05
53 3 2.848 -1.83358e-05 3.36491 1.03505e-13 -1.35783e-05 0.000936443
11 1 3.16085e-16 3.28848 4.67524 -3.68924e-14 -0.000126072 -0.000492089
75 3 -1.424 4.11062 5.98559 -7.01394e-06 -0.000415397 0.00165412
37 2 -1.424 2.46633 7.01291 5.83888e-06 -0.000281918 0.00111595
35 2 -4.92185e-15 4.93277 7.01291 -8.23526e-13 -0.000418945 0.00111639
19 1 -1.424 4.11069 9.35055 1.75247e-05 -0.000955491 0.00224118
67 3 1.18655e-14 3.28848 8.04024 -1.4881e-12 -0.000512971 0.000472775
43 2 -4.7357e-15 3.28862 11.6882 2.96431e-13 0.000139655 0.00122325
83 3 -1.424 4.11077 12.7156 3.00879e-06 -2.41389e-05 0.00188309
93 3 4.02427e-15 4.93291 10.6609 1.66119e-12 -4.63078e-05 0.00159067
6 1 2.848 6.29509e-05 14.0259 -1.49903e-12 -0.000674083 0.000506502
28 2 -1.424 4.11072 16.3636 1.57816e-06 -0.000164228 -0.00021392
60 3 8.06533e-16 3.28858 15.3363 1.44206e-12 -5.02532e-05 -0.000844333
54 3 2.848 -1.66226e-05 17.3909 3.2857e-13 6.45299e-05 -0.000192115
12 1 8.01019e-15 3.28848 18.7013 7.59253e-13 -1.59432e-05 -0.00185724
76 3 -1.424 4.11063 20.0116 8.46146e-07 -0.000369762 -0.00121138
36 2 2.848 -0.000106535 21.0389 5.56329e-13 -0.000347602 -0.00195536
20 1 -1.424 4.11069 23.3766 -4.12252e-07 -0.00082498 0.00039678
68 3 8.54378e-15 3.28848 22.0662 8.50064e-13 -0.000453928 -0.00244004
44 2 1.15216e-14 3.28862 25.7143 1.09625e-12 0.000199203 -0.000761411
84 3 -1.424 4.11077 26.7416 -1.10345e-06 4.04339e-05 -0.000148509
94 3 -8.63519e-15 4.93291 24.6869 2.67653e-13 3.15648e-05 -0.000674772
5 1 2.848 6.28812e-05 -8.39219e-05 2.51187e-12 -0.000666468 0.000126048
51 3 4.272 2.46642 3.36491 7.32001e-06 9.42512e-05 0.00062091
61 3 4.272 0.82213 1.31026 2.79792e-06 5.93803e-05 -0.000389948
29 2 2.848 1.64427 2.33758 -6.49173e-13 0.000275556 0.000588789
13 1 4.272 0.822037 4.67525 1.60183e-05 0.000625622 -0.000496829
77 3 2.848 1.64418 5.98559 4.02114e-13 -7.37934e-05 0.00149563
21 1 2.848 1.64424 9.35059 6.75056e-13 0.000984066 0.00116949
69 3 4.272 0.822038 8.04025 -8.08085e-06 -2.18625e-05 0.000472382
45 2 4.272 0.822182 11.6883 3.01531e-06 0.000328228 0.00122532
85 3 2.848 1.64433 12.7156 5.53059e-13 0.000297644 0.00173587
91 3 -1.424 2.46647 10.6609 7.74071e-06 0.000403642 0.00163862
4 1 -1.424 2.4665 14.0259 -5.29486e-07 -0.000183097 0.000558334
52 3 4.272 2.46642 17.3909 1.1028e-06 0.000152341 -0.000516986
62 3 4.272 0.822132 15.3363 -1.32384e-06 0.000125515 -0.00119998
30 2 2.848 1.64428 16.3636 1.43776e-12 0.000335488 -0.000217994
14 1 4.272 0.82204 18.7013 -1.89486e-06 0.000767628 -0.00192597
78 3 2.848 1.64419 20.0116 -6.56387e-13 -1.52334e-05 -0.00135601
38 2 4.272 2.46634 21.0389 -9.30894e-08 -0.000227431 -0.00195494
22 1 2.848 1.64424 23.3766 1.07208e-12 0.00108187 -0.000608977
70 3 4.272 0.822043 22.0662 -2.09101e-07 2.34065e-05 -0.00245521
46 2 4.272 0.822183 25.7143 -1.96087e-08 0.000390545 -0.000765335
86 3 2.848 1.64433 26.7416 1.13686e-12 0.000356553 -0.000317759
92 3 -1.424 2.46648 24.6869 1.51924e-06 0.000461122 -0.00063652
3 1 -1.424 2.4665 -7.35228e-05 -5.02806e-07 -0.000173756 0.000175388
31 2 1.424 4.11072 2.33758 -4.61401e-06 -0.000227673 0.000598805
63 3 2.848 3.28858 1.31026 -5.59951e-13 -0.000105538 -3.9215e-05
49 3 -2.13163e-14 -1.84525e-05 3.36491 -4.91383e-13 -4.58077e-06 0.000929018
15 1 2.848 3.28848 4.67524 9.34883e-13 -0.000116081 -0.000447643
79 3 1.424 4.11062 5.98559 7.01394e-06 -0.000415397 0.00165412
33 2 1.424 2.46633 7.01291 -5.83888e-06 -0.000281918 0.00111595
39 2 -1.33227e-15 -0.000110789 7.01291 5.62735e-15 -0.000410004 0.00112098
23 1 1.424 4.11069 9.35055 -1.75247e-05 -0.000955491 0.00224118
71 3 2.848 3.28848 8.04024 -5.14157e-13 -0.000521262 0.000481481
47 2 2.848 3.28862 11.6883 9.06147e-13 0.000146658 0.00122462
87 3 1.424 4.11077 12.7156 -3.00879e-06 -2.41389e-05 0.00188309
89 3 -3.01981e-14 3.07452e-05 10.6609 -1.49053e-12 -3.57355e-05 0.00158095
2 1 5.77316e-15 6.28384e-05 14.0259 1.28093e-12 -0.000675882 0.000490052
32 2 1.424 4.11072 16.3636 -1.57816e-06 -0.000164228 -0.00021392
64 3 2.848 3.28858 15.3363 -1.00225e-12 -5.14766e-05 -0.000856872
50 3 7.54952e-15 -1.66222e-05 17.3909 7.04022e-13 6.62574e-05 -0.000185222
16 1 2.848 3.28848 18.7013 -1.23971e-13 -1.99578e-05 -0.0018558
80 3 1.424 4.11063 20.0116 -8.46144e-07 -0.000369762 -0.00121138
40 2 -1.82077e-14 -0.000106562 21.0389 -1.44629e-12 -0.000347811 -0.00195502
24 1 1.424 4.11069 23.3766 4.12252e-07 -0.00082498 0.00039678
72 3 2.848 3.28848 22.0662 -1.56841e-13 -0.000453583 -0.0024408
48 2 2.848 3.28862 25.7143 -2.58681e-13 0.000203033 -0.000764832
88 3 1.424 4.11077 26.7416 1.10345e-06 4.04339e-05 -0.000148509
90 3 1.15463e-14 3.25413e-05 24.6869 2.25032e-14 3.48811e-05 -0.000670168
1 1 6.21725e-15 6.27675e-05 -8.38912e-05 -2.6191e-12 -0.000668269 0.000109628
ITEM: TIMESTEP
1000
ITEM: NUMBER OF ATOMS
96
ITEM: BOX BOUNDS xy xz yz pp pp pp
-2.8479999999999999e+00 5.6959999999999997e+00 -2.8479999999999999e+00
0.0000000000000000e+00 4.9328810000000001e+00 0.0000000000000000e+00
0.0000000000000000e+00 2.8052000000000000e+01 0.0000000000000000e+00
ITEM: ATOMS id type xu yu zu vx vy vz
57 3 1.424 0.822039 1.3102 -4.46456e-05 -0.00156713 0.00222909
55 3 1.424 2.46635 3.36483 2.4994e-05 -0.00180938 -0.00175381
25 2 -5.09089e-14 1.64421 2.3375 2.27707e-12 -0.000229007 -0.00121841
9 1 1.424 0.822313 4.67505 -3.62159e-05 -0.00139934 0.00599304
73 3 -4.55066e-14 1.64453 5.98529 9.56534e-13 0.0015624 -0.00550888
17 1 -1.11847e-14 1.64429 9.35041 1.85337e-12 -0.00150678 -0.000269591
65 3 1.424 0.822371 8.03991 5.05855e-05 0.00269409 -0.000120623
41 2 1.424 0.821869 11.6881 -3.04586e-05 -0.00226065 -0.000141684
81 3 2.2123e-14 1.64401 12.7154 3.50043e-12 -0.00123862 -0.00507755
95 3 1.424 2.46617 10.6608 2.3288e-05 5.13682e-05 -0.00336823
8 1 1.424 2.46614 14.0259 2.37023e-05 -0.00112057 0.0017671
58 3 1.424 0.822062 15.3363 -2.19323e-05 -0.00144531 0.00411209
56 3 1.424 2.46638 17.391 -6.34362e-06 -0.00164228 0.000565333
26 2 1.60878e-14 1.64423 16.3637 -1.37556e-12 -0.000119683 0.000133419
10 1 1.424 0.822368 18.7014 1.62155e-05 -0.000837004 0.006749
74 3 5.51541e-14 1.64459 20.0118 5.22434e-12 0.00208821 0.000531815
34 2 1.424 2.46673 21.0392 8.21481e-06 0.00182285 0.00300305
18 1 3.04901e-14 1.64434 23.3768 -1.49247e-12 -0.00118944 0.000652392
66 3 1.424 0.822432 22.0665 1.15355e-05 0.00312862 0.00589535
42 2 1.424 0.821893 25.7145 -1.1525e-05 -0.00209477 0.00358826
82 3 -2.92515e-14 1.64403 26.7418 -9.1363e-12 -0.00115319 -0.000548286
96 3 1.424 2.4662 24.6872 -7.98673e-06 0.000219234 0.00139295
7 1 1.424 2.46614 -2.59118e-06 2.36393e-05 -0.00107798 0.00170867
27 2 -1.424 4.11064 2.33751 3.21143e-05 -0.000589123 -0.00217381
59 3 -1.12574e-14 3.28849 1.31018 -3.20363e-12 0.000972327 0.00344694
53 3 2.848 -7.17143e-05 3.36481 -4.09747e-12 0.00107464 -0.000605233
11 1 -5.25125e-14 3.28876 4.67504 -7.29455e-12 0.0012978 0.00068431
75 3 -1.424 4.11096 5.98529 -4.67464e-05 0.00101354 -0.00500092
37 2 -1.424 2.46667 7.01258 -1.47139e-05 0.00136734 -0.00347952
35 2 -4.72647e-14 4.9331 7.01258 -6.51465e-13 0.00224954 -0.00387017
19 1 -1.424 4.11072 9.35039 2.0877e-05 0.00117552 -0.00815894
67 3 -6.26486e-14 3.28881 8.03991 6.10164e-12 -2.64105e-05 -0.000956257
43 2 2.95325e-15 3.28831 11.6881 -3.63214e-12 -0.00130464 -0.000697083
83 3 -1.424 4.11045 12.7154 4.53408e-05 -0.00138594 -0.00439455
93 3 -8.55457e-15 4.9326 10.6608 1.13111e-11 -0.00282081 -0.00435109
6 1 2.848 -0.0002972 14.0259 -4.81274e-12 0.00102757 -0.00216987
28 2 -1.424 4.11067 16.3637 1.32195e-05 -0.000428602 -0.000833045
60 3 -2.21059e-14 3.28852 15.3363 3.81249e-12 0.00107309 0.00536458
54 3 2.848 -4.6105e-05 17.391 -3.82116e-12 0.00116903 0.00180242
12 1 1.06695e-15 3.28881 18.7014 7.89129e-12 0.00176225 0.00141126
76 3 -1.424 4.11102 20.0118 -7.66939e-06 0.00145435 0.000965389
36 2 2.848 0.000284327 21.0392 6.45568e-12 0.0026779 0.00262814
20 1 -1.424 4.11077 23.3768 -3.16753e-05 0.001695 -0.00723376
68 3 4.97531e-14 3.28887 22.0665 -4.35825e-12 0.000461396 0.0052599
44 2 4.46426e-14 3.28833 25.7145 -2.08071e-12 -0.00116635 0.00307343
84 3 -1.424 4.11047 26.7418 2.2646e-05 -0.00125347 0.000123437
94 3 -3.02781e-14 4.93263 24.6872 -1.14301e-12 -0.00272556 0.000504669
5 1 2.848 -0.000295482 -1.29058e-05 4.49066e-12 0.0010624 -0.00223753
51 3 4.272 2.46635 3.36483 -2.4994e-05 -0.00180938 -0.00175381
61 3 4.272 0.822039 1.3102 4.46456e-05 -0.00156713 0.00222909
29 2 2.848 1.64421 2.3375 1.04275e-12 -0.00026775 -0.00123029
13 1 4.272 0.822313 4.67505 3.62159e-05 -0.00139934 0.00599304
77 3 2.848 1.64453 5.98529 8.86496e-12 0.00160206 -0.0055749
21 1 2.848 1.64429 9.35041 -7.54577e-13 -0.00156326 -0.000223148
69 3 4.272 0.822371 8.03991 -5.05855e-05 0.00269409 -0.000120623
45 2 4.272 0.821869 11.6881 3.04586e-05 -0.00226065 -0.000141684
85 3 2.848 1.64401 12.7154 -8.04938e-12 -0.00126473 -0.00505991
91 3 -1.424 2.46617 10.6608 -2.3288e-05 5.13681e-05 -0.00336823
4 1 -1.424 2.46614 14.0259 -2.37023e-05 -0.00112057 0.0017671
52 3 4.272 2.46638 17.391 6.34362e-06 -0.00164228 0.000565333
62 3 4.272 0.822062 15.3363 2.19323e-05 -0.00144531 0.00411209
30 2 2.848 1.64423 16.3637 2.37814e-12 -0.000135547 0.000150364
14 1 4.272 0.822368 18.7014 -1.62155e-05 -0.000837004 0.006749
78 3 2.848 1.64459 20.0118 -1.95192e-12 0.00209608 0.000587054
38 2 4.272 2.46673 21.0392 -8.21481e-06 0.00182285 0.00300305
22 1 2.848 1.64434 23.3768 1.65958e-12 -0.00114704 0.000670341
70 3 4.272 0.822432 22.0665 -1.15355e-05 0.00312862 0.00589535
46 2 4.272 0.821893 25.7145 1.1525e-05 -0.00209477 0.00358826
86 3 2.848 1.64403 26.7418 5.51937e-12 -0.00115219 -0.000498815
92 3 -1.424 2.4662 24.6872 7.98673e-06 0.000219234 0.00139295
3 1 -1.424 2.46614 -2.59118e-06 -2.36393e-05 -0.00107798 0.00170867
31 2 1.424 4.11064 2.33751 -3.21143e-05 -0.000589123 -0.00217381
63 3 2.848 3.28849 1.31018 5.87215e-14 0.00102227 0.00342663
49 3 -3.95239e-14 -7.18189e-05 3.36481 3.29644e-12 0.00104888 -0.000725806
15 1 2.848 3.28876 4.67504 8.60335e-12 0.00133887 0.000667892
79 3 1.424 4.11096 5.98529 4.67464e-05 0.00101354 -0.00500092
33 2 1.424 2.46667 7.01258 1.47138e-05 0.00136734 -0.00347952
39 2 2.53131e-14 0.000223413 7.01258 2.11089e-12 0.00223661 -0.0038806
23 1 1.424 4.11072 9.35039 -2.0877e-05 0.00117552 -0.00815894
71 3 2.848 3.28881 8.03991 4.19883e-12 -6.87559e-05 -0.000882989
47 2 2.848 3.28831 11.6881 -5.39095e-12 -0.001259 -0.000687328
87 3 1.424 4.11045 12.7154 -4.53408e-05 -0.00138594 -0.00439455
89 3 -4.4853e-14 -0.000277154 10.6608 -1.08492e-11 -0.0028146 -0.00448087
2 1 8.57092e-14 -0.000297252 14.0259 5.36074e-12 0.000979605 -0.00220133
32 2 1.424 4.11067 16.3637 -1.32195e-05 -0.000428602 -0.000833045
64 3 2.848 3.28852 15.3363 -8.40089e-12 0.00109592 0.00531277
50 3 -7.99361e-15 -4.61962e-05 17.391 3.08919e-13 0.00117789 0.00185986
16 1 2.848 3.28881 18.7014 -6.44497e-12 0.00170509 0.0014236
80 3 1.424 4.11102 20.0118 7.66938e-06 0.00145435 0.000965389
40 2 2.53131e-14 0.000284083 21.0392 -2.6532e-12 0.00267049 0.00263872
24 1 1.424 4.11077 23.3768 3.16753e-05 0.001695 -0.00723376
72 3 2.848 3.28887 22.0665 1.96138e-12 0.000450849 0.00521171
48 2 2.848 3.28833 25.7145 -1.96557e-12 -0.00114362 0.00305426
88 3 1.424 4.11047 26.7418 -2.26459e-05 -0.00125347 0.000123437
90 3 4.92939e-14 -0.000251461 24.6872 1.01553e-12 -0.0026847 0.000552971
1 1 9.90319e-14 -0.000295538 -1.30023e-05 -7.34335e-12 0.00101495 -0.00226892
ITEM: TIMESTEP
1500
ITEM: NUMBER OF ATOMS
96
ITEM: BOX BOUNDS xy xz yz pp pp pp
-2.8479999999999999e+00 5.6959999999999997e+00 -2.8479999999999999e+00
0.0000000000000000e+00 4.9328810000000001e+00 0.0000000000000000e+00
0.0000000000000000e+00 2.8052000000000000e+01 0.0000000000000000e+00
ITEM: ATOMS id type xu yu zu vx vy vz
57 3 1.424 0.822334 1.3104 -2.65887e-05 -0.000374294 -0.0167978
55 3 1.424 2.46653 3.36516 3.89101e-05 -0.00235303 -0.00982122
25 2 -1.89995e-13 1.64441 2.33775 1.0522e-11 0.00570057 0.000287578
9 1 1.424 0.821168 4.67569 -0.000237985 -0.00677363 -0.022171
73 3 -2.49474e-13 1.64306 5.98618 -2.30216e-11 -0.00994619 -0.00426982
17 1 -4.8815e-13 1.64411 9.3509 -4.0543e-12 0.00982173 -0.0188005
65 3 1.424 0.820912 8.04089 0.000106734 -0.00652537 -0.0155099
41 2 1.424 0.822972 11.6887 -8.28407e-05 0.00963309 -0.0219926
81 3 -5.27143e-14 1.64515 12.7161 2.28306e-12 0.00736752 0.000682661
95 3 1.424 2.46718 10.6615 2.60036e-05 0.00970767 -0.00354844
8 1 1.424 2.46739 14.026 -4.03177e-05 0.0200298 -0.0114025
58 3 1.424 0.822465 15.3361 -6.37139e-05 0.000109283 -0.0113125
56 3 1.424 2.46668 17.3906 -2.05031e-05 -0.0016938 -0.000594168
26 2 2.47607e-13 1.64455 16.3634 -1.87077e-11 0.00609201 0.0097897
10 1 1.424 0.821435 18.7009 0.000144198 -0.00525682 0.00971028
74 3 4.07282e-13 1.64331 20.0109 4.34346e-12 -0.00827954 0.0180509
34 2 1.424 2.46545 21.0382 5.44325e-05 -0.00951274 0.0186131
18 1 1.22516e-14 1.64434 23.3759 1.79604e-11 0.0100371 0.0234427
66 3 1.424 0.821158 22.0656 3.95228e-05 -0.00506407 0.0076574
42 2 1.424 0.823127 25.7138 6.88891e-06 0.0105043 -0.002321
82 3 -2.40928e-13 1.6453 26.7412 -1.26972e-11 0.00827222 0.0153895
96 3 1.424 2.46734 24.6865 -3.29626e-05 0.0106339 0.0142549
7 1 1.424 2.46742 -0.000209334 -4.20012e-05 0.0200846 -0.000216757
27 2 -1.424 4.11079 2.33784 0.000121405 -0.00250964 -0.000168289
59 3 -4.28947e-13 3.28866 1.31033 -3.00034e-12 0.0044168 -0.0181577
53 3 2.848 -2.34929e-05 3.36508 -2.35342e-11 0.00320048 -0.0121339
11 1 -8.14352e-14 3.28758 4.67571 -4.71925e-11 -0.0204258 -0.019683
75 3 -1.424 4.10946 5.98617 -0.000100264 -0.0102996 -0.00282033
37 2 -1.424 2.46521 7.01355 6.68724e-05 -0.0110223 -0.00575007
35 2 -1.22352e-14 4.93162 7.01357 -9.45975e-12 -0.0123303 -0.00491032
19 1 -1.424 4.11031 9.35118 0.000238174 -0.0164446 -0.00626144
67 3 8.72074e-14 3.28738 8.0409 -2.54024e-11 -0.012406 -0.0117188
43 2 1.53084e-13 3.28937 11.6887 -3.95979e-12 0.00763768 -0.0210323
83 3 -1.424 4.11153 12.716 2.04219e-05 0.00796044 0.00121425
93 3 1.17523e-13 4.93366 10.6615 2.49355e-11 0.00347978 0.000704492
6 1 2.848 0.00094438 14.026 -3.52212e-11 0.0101417 -0.0101243
28 2 -1.424 4.11093 16.3635 3.20422e-05 -0.001931 0.00930544
60 3 1.21698e-13 3.28879 15.3361 2.90621e-11 0.00500967 -0.0128
54 3 2.848 0.000121669 17.3905 -4.94158e-12 0.00370889 -0.00260624
12 1 3.60039e-14 3.28784 18.7009 1.25505e-11 -0.0195094 0.0127788
76 3 -1.424 4.10971 20.0109 -3.27463e-05 -0.008821 0.0191182
36 2 2.848 -0.00101405 21.0383 1.25056e-11 -0.010431 0.0195056
20 1 -1.424 4.11055 23.3762 -0.000141373 -0.0152678 0.0358824
68 3 1.52479e-13 3.28763 22.0656 -3.24816e-11 -0.0108395 0.0125987
44 2 1.71459e-13 3.28953 25.7138 1.76109e-11 0.00839805 -0.00131636
84 3 -1.424 4.11168 26.7412 5.7527e-05 0.00873615 0.0159229
94 3 -4.78117e-14 4.93383 24.6865 -3.81899e-12 0.0042727 0.0188146
5 1 2.848 0.000973197 -0.000214281 1.5062e-11 0.0101263 0.00103093
51 3 4.272 2.46653 3.36516 -3.89101e-05 -0.00235303 -0.00982122
61 3 4.272 0.822334 1.3104 2.65887e-05 -0.000374294 -0.0167978
29 2 2.848 1.64441 2.33774 -1.33339e-11 0.00555845 0.000329154
13 1 4.272 0.821168 4.67569 0.000237985 -0.00677363 -0.022171
77 3 2.848 1.64306 5.98618 -3.32972e-11 -0.0098435 -0.00460387
21 1 2.848 1.6441 9.3509 3.8024e-12 0.00958205 -0.0191515
69 3 4.272 0.820912 8.04089 -0.000106734 -0.00652537 -0.0155099
45 2 4.272 0.822972 11.6887 8.28407e-05 0.00963309 -0.0219926
85 3 2.848 1.64515 12.7161 1.65363e-11 0.00735978 0.000854437
91 3 -1.424 2.46718 10.6615 -2.60037e-05 0.00970767 -0.00354844
4 1 -1.424 2.46739 14.026 4.03177e-05 0.0200298 -0.0114025
52 3 4.272 2.46668 17.3906 2.05031e-05 -0.0016938 -0.000594167
62 3 4.272 0.822465 15.3361 6.37139e-05 0.000109283 -0.0113125
30 2 2.848 1.64455 16.3634 1.34893e-11 0.0060503 0.00985651
14 1 4.272 0.821435 18.7009 -0.000144198 -0.00525682 0.00971028
78 3 2.848 1.64331 20.0109 -1.77572e-11 -0.00824764 0.0184907
38 2 4.272 2.46545 21.0382 -5.44324e-05 -0.00951274 0.0186131
22 1 2.848 1.64434 23.3759 -1.72784e-11 0.010161 0.0234879
70 3 4.272 0.821158 22.0656 -3.95228e-05 -0.00506407 0.0076574
46 2 4.272 0.823127 25.7138 -6.88891e-06 0.0105043 -0.002321
86 3 2.848 1.6453 26.7412 1.69143e-11 0.00822274 0.0154585
92 3 -1.424 2.46734 24.6865 3.29626e-05 0.0106339 0.0142549
3 1 -1.424 2.46742 -0.000209334 4.20012e-05 0.0200846 -0.000216757
31 2 1.424 4.11079 2.33784 -0.000121405 -0.00250964 -0.000168289
63 3 2.848 3.28866 1.31033 1.10975e-11 0.00444421 -0.0183178
49 3 -1.94511e-13 -2.28065e-05 3.36508 6.98816e-12 0.00315194 -0.0123477
15 1 2.848 3.28759 4.67572 3.9902e-11 -0.0203603 -0.0193691
79 3 1.424 4.10946 5.98617 0.000100265 -0.0102996 -0.00282033
33 2 1.424 2.46521 7.01355 -6.68724e-05 -0.0110223 -0.00575007
39 2 -3.53051e-13 -0.00126542 7.01357 9.55699e-12 -0.0121775 -0.00491097
23 1 1.424 4.11031 9.35118 -0.000238174 -0.0164446 -0.00626144
71 3 2.848 3.28738 8.04091 -1.90497e-11 -0.0125138 -0.0113863
47 2 2.848 3.28937 11.6887 2.07091e-11 0.0078486 -0.0210849
87 3 1.424 4.11153 12.716 -2.04219e-05 0.00796044 0.00121425
89 3 -2.3892e-13 0.000784372 10.6615 1.40163e-11 0.00345821 0.000507413
2 1 4.89386e-13 0.000943848 14.026 3.22628e-11 0.0101525 -0.0102487
32 2 1.424 4.11093 16.3635 -3.20422e-05 -0.001931 0.00930544
64 3 2.848 3.28879 15.3361 -9.37323e-13 0.00507961 -0.0128589
50 3 -1.86517e-14 0.000122921 17.3905 1.15521e-11 0.0037284 -0.00237321
16 1 2.848 3.28784 18.7009 -1.97736e-12 -0.0198132 0.0126911
80 3 1.424 4.10971 20.0109 3.27463e-05 -0.008821 0.0191182
40 2 2.10942e-13 -0.00101466 21.0383 -1.69005e-11 -0.0104851 0.0196331
24 1 1.424 4.11055 23.3762 0.000141373 -0.0152678 0.0358824
72 3 2.848 3.28763 22.0656 1.5761e-11 -0.0108762 0.0121574
48 2 2.848 3.28953 25.7138 -1.63898e-12 0.00850813 -0.00139317
88 3 1.424 4.11168 26.7412 -5.7527e-05 0.00873615 0.0159229
90 3 1.84741e-13 0.000947031 24.6865 2.18488e-11 0.00431911 0.0190632
1 1 -3.88578e-13 0.000972741 -0.00022027 -3.33685e-11 0.0101383 0.000896664
ITEM: TIMESTEP
2000
ITEM: NUMBER OF ATOMS
96
ITEM: BOX BOUNDS xy xz yz pp pp pp
-2.8479999999999999e+00 5.6959999999999997e+00 -2.8479999999999999e+00
0.0000000000000000e+00 4.9328810000000001e+00 0.0000000000000000e+00
0.0000000000000000e+00 2.8052000000000000e+01 0.0000000000000000e+00
ITEM: ATOMS id type xu yu zu vx vy vz
57 3 1.424 0.821187 1.31141 6.10547e-05 -0.00507617 0.0526514
55 3 1.424 2.46585 3.36625 -0.000173857 0.00839708 0.0672332
25 2 -6.38616e-14 1.64329 2.33816 1.59485e-11 -0.00315816 0.00885652
9 1 1.42398 0.824659 4.6783 -0.000603752 0.102042 0.110063
73 3 -3.65632e-13 1.6477 5.98945 -8.21596e-11 0.0444282 0.107935
17 1 -1.84891e-12 1.64381 9.35359 -3.74162e-11 0.0113937 0.137811
65 3 1.424 0.825317 8.04456 0.000578111 0.0392284 0.100169
41 2 1.424 0.818433 11.6898 0.000105094 -0.0437931 0.0737205
81 3 4.50619e-13 1.64065 12.7165 3.40621e-11 -0.0557437 0.00783658
95 3 1.424 2.46292 10.6624 4.5803e-05 -0.05205 0.0124591
8 1 1.42401 2.46136 14.0265 -0.000580209 -0.0983666 0.0582712
58 3 1.424 0.82156 15.336 0.000780003 -0.00109572 0.00502662
56 3 1.424 2.46631 17.3901 -0.000234813 0.0123907 -0.00502657
26 2 1.10605e-12 1.64372 16.3623 4.81533e-11 0.00124414 -0.0489547
10 1 1.424 0.825572 18.7004 0.000820631 0.0980204 -0.0725608
74 3 -8.97356e-13 1.64865 20.0092 1.33752e-10 0.0487647 -0.0440532
34 2 1.424 2.47074 21.0367 9.34144e-05 0.0609904 -0.085661
18 1 4.57741e-13 1.64454 23.3744 1.19901e-10 0.0173152 -0.102219
66 3 1.424 0.826252 22.0641 -0.000544688 0.0417732 -0.0601079
42 2 1.424 0.818963 25.7116 -0.00015116 -0.040338 -0.0541776
82 3 -5.79741e-14 1.64117 26.7385 -2.55003e-11 -0.0530076 -0.104795
96 3 1.424 2.46346 24.6838 -2.07826e-05 -0.048432 -0.12165
7 1 1.42401 2.46148 -0.000603564 -0.000579764 -0.103425 -0.00479219
27 2 -1.424 4.10994 2.33836 -2.43283e-05 -0.0193212 0.0077104
59 3 1.61521e-14 3.28743 1.31117 -6.06089e-11 -0.0274709 0.0661837
53 3 2.848 -0.000806646 3.36605 3.45125e-11 -0.0181861 0.0824557
11 1 -4.75869e-13 3.29246 4.67729 -1.27497e-10 0.086199 0.0640337
75 3 -1.424 4.1142 5.98935 -0.00063415 0.0617949 0.0954209
37 2 -1.42401 2.4698 7.0167 0.000399389 0.0590717 0.0905906
35 2 -2.10512e-13 4.93645 7.0167 4.63246e-11 0.0502435 0.0981224
19 1 -1.42399 4.11187 9.35225 0.000421237 0.0204774 0.0782096
67 3 1.0773e-12 3.29199 8.04427 1.49354e-10 0.057927 0.0892404
43 2 -1.03553e-13 3.28511 11.6898 -8.49763e-11 -0.0539118 0.0827347
83 3 -1.424 4.10711 12.7164 0.000126052 -0.0437433 -0.00282083
93 3 1.34876e-12 4.92962 10.6621 -5.97462e-11 -0.0318386 0.00183587
6 1 2.848 -0.00404064 14.0257 -9.07273e-11 -0.114428 0.0215741
28 2 -1.424 4.11036 16.3625 0.000240892 -0.0160383 -0.0498755
60 3 -1.47043e-12 3.28782 15.3357 3.73733e-11 -0.0247668 0.0195968
54 3 2.848 -0.000357085 17.3899 -4.98279e-11 -0.0143189 0.0121598
12 1 2.02241e-12 3.29336 18.6994 1.43993e-10 0.0810754 -0.117686
76 3 -1.424 4.11514 20.0091 0.000482431 0.063796 -0.0583274
36 2 2.848 0.00450047 21.0367 6.99046e-11 0.0543474 -0.0778365
20 1 -1.424 4.11263 23.3731 -0.000993146 0.0297762 -0.162392
68 3 6.23365e-13 3.29294 22.0638 -5.03398e-11 0.0621941 -0.0676774
44 2 -6.07454e-13 3.28564 25.7116 -2.71882e-12 -0.0502759 -0.0453515
84 3 -1.424 4.10762 26.7384 -0.000599456 -0.0394568 -0.115476
94 3 -5.77443e-13 4.93016 24.6836 -1.26479e-10 -0.0283705 -0.130618
5 1 2.848 -0.00391731 -0.00140115 1.59953e-10 -0.12105 -0.0381724
51 3 4.272 2.46585 3.36625 0.000173857 0.00839708 0.0672332
61 3 4.272 0.821187 1.31141 -6.10547e-05 -0.00507617 0.0526514
29 2 2.848 1.64329 2.33816 2.75434e-11 -0.00314923 0.00940821
13 1 4.27202 0.824659 4.6783 0.000603752 0.102042 0.110063
77 3 2.848 1.6477 5.98943 2.63936e-10 0.0446749 0.107357
21 1 2.848 1.6438 9.35362 3.16702e-11 0.0105002 0.136641
69 3 4.272 0.825317 8.04456 -0.000578111 0.0392284 0.100169
45 2 4.272 0.818433 11.6898 -0.000105094 -0.0437931 0.0737205
85 3 2.848 1.64065 12.7165 -9.8654e-11 -0.0551307 0.00803102
91 3 -1.424 2.46292 10.6624 -4.58029e-05 -0.05205 0.0124591
4 1 -1.42401 2.46136 14.0265 0.000580209 -0.0983666 0.0582712
52 3 4.272 2.46631 17.3901 0.000234813 0.0123907 -0.00502657
62 3 4.272 0.82156 15.336 -0.000780003 -0.00109572 0.00502662
30 2 2.848 1.64372 16.3623 -5.67505e-11 0.00095534 -0.0486619
14 1 4.272 0.825572 18.7004 -0.000820631 0.0980204 -0.0725608
78 3 2.848 1.64865 20.0092 -7.04491e-11 0.048082 -0.0426079
38 2 4.272 2.47074 21.0367 -9.34145e-05 0.0609904 -0.085661
22 1 2.848 1.64453 23.3744 -1.06772e-10 0.0180761 -0.100762
70 3 4.272 0.826252 22.0641 0.000544688 0.0417732 -0.0601079
46 2 4.272 0.818963 25.7116 0.00015116 -0.040338 -0.0541776
86 3 2.848 1.64117 26.7385 -6.73211e-11 -0.0515931 -0.104078
92 3 -1.424 2.46346 24.6838 2.07827e-05 -0.048432 -0.12165
3 1 -1.42401 2.46148 -0.000603564 0.000579764 -0.103425 -0.00479219
31 2 1.424 4.10994 2.33836 2.43283e-05 -0.0193212 0.0077104
63 3 2.848 3.28742 1.31117 5.36514e-11 -0.0275942 0.0659662
49 3 -1.14575e-13 -0.000806811 3.36603 -9.0904e-11 -0.0180341 0.0820195
15 1 2.848 3.29247 4.67728 1.61247e-10 0.0864231 0.0655857
79 3 1.424 4.1142 5.98935 0.00063415 0.0617949 0.0954209
33 2 1.42401 2.4698 7.0167 -0.000399389 0.0590717 0.0905906
39 2 -8.52651e-13 0.00356011 7.0167 -4.77457e-11 0.0508501 0.0980266
23 1 1.42399 4.11187 9.35225 -0.000421237 0.0204774 0.0782096
71 3 2.848 3.29199 8.04428 -1.49785e-11 0.0576772 0.0898341
47 2 2.848 3.28511 11.6898 -5.42615e-11 -0.0538157 0.0822237
87 3 1.424 4.10711 12.7164 -0.000126052 -0.0437433 -0.00282083
89 3 -9.48575e-13 -0.00325992 10.6621 -2.84543e-11 -0.0312778 0.00136503
2 1 7.06102e-13 -0.00404651 14.0257 5.31803e-11 -0.114274 0.0198795
32 2 1.424 4.11036 16.3625 -0.000240892 -0.0160383 -0.0498755
64 3 2.848 3.28782 15.3357 -9.18091e-11 -0.0256834 0.0189053
50 3 -1.672e-12 -0.000355167 17.3899 8.77459e-11 -0.0141057 0.0142836
16 1 2.848 3.29337 18.6994 -5.50584e-11 0.0797282 -0.118697
80 3 1.424 4.11514 20.0091 -0.000482431 0.063796 -0.0583274
40 2 1.0103e-12 0.00449803 21.0367 -5.02348e-11 0.054271 -0.0768601
24 1 1.424 4.11263 23.3731 0.000993146 0.0297762 -0.162392
72 3 2.848 3.29294 22.0638 1.47136e-10 0.0628694 -0.0690974
48 2 2.848 3.28564 25.7116 -3.23399e-11 -0.0498893 -0.045626
88 3 1.424 4.10762 26.7384 0.000599457 -0.0394568 -0.115476
90 3 8.58424e-13 -0.00272065 24.6836 4.98726e-11 -0.0277342 -0.128502
1 1 -9.03722e-13 -0.00392413 -0.00141894 -1.91041e-10 -0.120934 -0.0397729